input file for LAMMPS

2016  atoms
192  bonds

14 atom types
1 bond types


 0.000000000 31.356000000  xlo xhi
 0.000000000 36.073200000  ylo yhi
 0.000000000 20.243645913  zlo zhi

 0.000000000 -2.008095905  0.000000000  xy xz yz

Masses

1 28.085500
2 28.085500
3 26.981500
4 26.981500
5 15.999400
6 15.999400
7 39.098300
8 1.007000
9 15.999400
10 28.085500
11 39.098300
12 132.905450
13 39.098300
14 39.098300
Atoms

1 1 1 2.100000  1.752052000  8.384314000  7.757269000
2 1 1 2.100000 28.609768000 27.688887000  2.265043000
3 1 1 2.100000 27.615591000  8.384314000 12.287354000
4 1 1 2.100000  0.757875000 27.688887000 17.779579000
5 1 1 2.100000  4.365051000 12.893464000  7.757269000
6 1 1 2.100000 -0.133229000 32.198036000  2.265043000
7 1 1 2.100000 -1.127406000 12.893464000 12.287354000
8 1 1 2.100000  3.370875000 32.198036000 17.779579000
9 1 1 2.100000  1.752052000 17.402615000  7.757269000
10 1 1 2.100000 28.609768000 18.670586000  2.265043000
11 1 1 2.100000 27.615591000 17.402615000 12.287354000
12 1 1 2.100000  0.757875000 18.670586000 17.779579000
13 1 1 2.100000  4.365051000 21.911764000  7.757269000
14 1 1 2.100000 -0.133229000 23.179735000  2.265043000
15 1 1 2.100000 -1.127406000 21.911764000 12.287354000
16 1 1 2.100000  3.370875000 23.179735000 17.779579000
17 1 1 2.100000 22.656048000  8.384314000  7.757269000
18 1 1 2.100000  7.705773000 27.688887000  2.265043000
19 1 1 2.100000  6.711596000  8.384314000 12.287354000
20 1 1 2.100000 21.661871000 27.688887000 17.779579000
21 1 1 2.100000 25.269047000 12.893464000  7.757269000
22 1 1 2.100000 10.318772000 32.198036000  2.265043000
23 1 1 2.100000  9.324595000 12.893464000 12.287354000
24 1 1 2.100000 24.274870000 32.198036000 17.779579000
25 1 1 2.100000 22.656048000 17.402615000  7.757269000
26 1 1 2.100000  7.705773000 18.670586000  2.265043000
27 1 1 2.100000  6.711596000 17.402615000 12.287354000
28 1 1 2.100000 21.661871000 18.670586000 17.779579000
29 1 1 2.100000 25.269047000 21.911764000  7.757269000
30 1 1 2.100000 10.318772000 23.179735000  2.265043000
31 1 1 2.100000  9.324595000 21.911764000 12.287354000
32 1 1 2.100000 24.274870000 23.179735000 17.779579000
33 1 1 2.100000  1.752052000 26.420914000  7.757269000
34 1 1 2.100000 28.609768000  9.652287000  2.265043000
35 1 1 2.100000 27.615591000 26.420914000 12.287354000
36 1 1 2.100000  0.757875000  9.652287000 17.779579000
37 1 1 2.100000  4.365051000 30.930063000  7.757269000
38 1 1 2.100000 -0.133229000 14.161437000  2.265043000
39 1 1 2.100000 -1.127406000 30.930063000 12.287354000
40 1 1 2.100000  3.370875000 14.161437000 17.779579000
41 1 1 2.100000  1.752052000 35.439213000  7.757269000
42 1 1 2.100000 28.609768000  0.633987000  2.265043000
43 1 1 2.100000 27.615591000 35.439213000 12.287354000
44 1 1 2.100000  0.757875000  0.633987000 17.779579000
45 1 1 2.100000  4.365051000  3.875163000  7.757269000
46 1 1 2.100000 -0.133229000  5.143137000  2.265043000
47 1 1 2.100000 -1.127406000  3.875163000 12.287354000
48 1 1 2.100000  3.370875000  5.143137000 17.779579000
49 1 1 2.100000 22.656048000 26.420914000  7.757269000
50 1 1 2.100000  7.705773000  9.652287000  2.265043000
51 1 1 2.100000  6.711596000 26.420914000 12.287354000
52 1 1 2.100000 21.661871000  9.652287000 17.779579000
53 1 1 2.100000 25.269047000 30.930063000  7.757269000
54 1 1 2.100000 10.318772000 14.161437000  2.265043000
55 1 1 2.100000  9.324595000 30.930063000 12.287354000
56 1 1 2.100000 24.274870000 14.161437000 17.779579000
57 1 1 2.100000 22.656048000 35.439213000  7.757269000
58 1 1 2.100000  7.705773000  0.633987000  2.265043000
59 1 1 2.100000  6.711596000 35.439213000 12.287354000
60 1 1 2.100000 21.661871000  0.633987000 17.779579000
61 1 1 2.100000 25.269047000  3.875163000  7.757269000
62 1 1 2.100000 10.318772000  5.143137000  2.265043000
63 1 1 2.100000  9.324595000  3.875163000 12.287354000
64 1 1 2.100000 24.274870000  5.143137000 17.779579000
65 1 1 2.100000 17.430050000  8.384314000  7.757269000
66 1 1 2.100000 12.931769000 27.688887000  2.265043000
67 1 1 2.100000 11.937593000  8.384314000 12.287354000
68 1 1 2.100000 16.435873000 27.688887000 17.779579000
69 1 1 2.100000 20.043051000 12.893464000  7.757269000
70 1 1 2.100000 15.544770000 32.198036000  2.265043000
71 1 1 2.100000 14.550593000 12.893464000 12.287354000
72 1 1 2.100000 19.048874000 32.198036000 17.779579000
73 1 1 2.100000 17.430050000 17.402615000  7.757269000
74 1 1 2.100000 12.931769000 18.670586000  2.265043000
75 1 1 2.100000 11.937593000 17.402615000 12.287354000
76 1 1 2.100000 16.435873000 18.670586000 17.779579000
77 1 1 2.100000 20.043051000 21.911764000  7.757269000
78 1 1 2.100000 15.544770000 23.179735000  2.265043000
79 1 1 2.100000 14.550593000 21.911764000 12.287354000
80 1 1 2.100000 19.048874000 23.179735000 17.779579000
81 1 1 2.100000  6.978053000  8.384314000  7.757269000
82 1 1 2.100000 23.383768000 27.688887000  2.265043000
83 1 1 2.100000 22.389591000  8.384314000 12.287354000
84 1 1 2.100000  5.983876000 27.688887000 17.779579000
85 1 1 2.100000  9.591052000 12.893464000  7.757269000
86 1 1 2.100000 25.996767000 32.198036000  2.265043000
87 1 1 2.100000 25.002590000 12.893464000 12.287354000
88 1 1 2.100000  8.596875000 32.198036000 17.779579000
89 1 1 2.100000  6.978053000 17.402615000  7.757269000
90 1 1 2.100000 23.383768000 18.670586000  2.265043000
91 1 1 2.100000 22.389591000 17.402615000 12.287354000
92 1 1 2.100000  5.983876000 18.670586000 17.779579000
93 1 1 2.100000  9.591052000 21.911764000  7.757269000
94 1 1 2.100000 25.996767000 23.179735000  2.265043000
95 1 1 2.100000 25.002590000 21.911764000 12.287354000
96 1 1 2.100000  8.596875000 23.179735000 17.779579000
97 1 1 2.100000 17.430050000 26.420914000  7.757269000
98 1 1 2.100000 12.931769000  9.652287000  2.265043000
99 1 1 2.100000 11.937593000 26.420914000 12.287354000
100 1 1 2.100000 16.435873000  9.652287000 17.779579000
101 1 1 2.100000 20.043051000 30.930063000  7.757269000
102 1 1 2.100000 15.544770000 14.161437000  2.265043000
103 1 1 2.100000 14.550593000 30.930063000 12.287354000
104 1 1 2.100000 19.048874000 14.161437000 17.779579000
105 1 1 2.100000 17.430050000 35.439213000  7.757269000
106 1 1 2.100000 12.931769000  0.633987000  2.265043000
107 1 1 2.100000 11.937593000 35.439213000 12.287354000
108 1 1 2.100000 16.435873000  0.633987000 17.779579000
109 1 1 2.100000 20.043051000  3.875163000  7.757269000
110 1 1 2.100000 15.544770000  5.143137000  2.265043000
111 1 1 2.100000 14.550593000  3.875163000 12.287354000
112 1 1 2.100000 19.048874000  5.143137000 17.779579000
113 1 1 2.100000  6.978053000 26.420914000  7.757269000
114 1 1 2.100000 23.383768000  9.652287000  2.265043000
115 1 1 2.100000 22.389591000 26.420914000 12.287354000
116 1 1 2.100000  5.983876000  9.652287000 17.779579000
117 1 1 2.100000  9.591052000 30.930063000  7.757269000
118 1 1 2.100000 25.996767000 14.161437000  2.265043000
119 1 1 2.100000 25.002590000 30.930063000 12.287354000
120 1 1 2.100000  8.596875000 14.161437000 17.779579000
121 1 1 2.100000  6.978053000 35.439213000  7.757269000
122 1 1 2.100000 23.383768000  0.633987000  2.265043000
123 1 1 2.100000 22.389591000 35.439213000 12.287354000
124 1 1 2.100000  5.983876000  0.633987000 17.779579000
125 1 1 2.100000  9.591052000  3.875163000  7.757269000
126 1 1 2.100000 25.996767000  5.143137000  2.265043000
127 1 1 2.100000 25.002590000  3.875163000 12.287354000
128 1 1 2.100000  8.596875000  5.143137000 17.779579000
129 1 1 2.100000 12.204051000  8.384314000  7.757269000
130 1 1 2.100000 18.157770000 27.688887000  2.265043000
131 1 1 2.100000 17.163593000  8.384314000 12.287354000
132 1 1 2.100000 11.209874000 27.688887000 17.779579000
133 1 1 2.100000 14.817051000 12.893464000  7.757269000
134 1 1 2.100000 20.770769000 32.198036000  2.265043000
135 1 1 2.100000 19.776592000 12.893464000 12.287354000
136 1 1 2.100000 13.822874000 32.198036000 17.779579000
137 1 1 2.100000 12.204051000 17.402615000  7.757269000
138 1 1 2.100000 18.157770000 18.670586000  2.265043000
139 1 1 2.100000 17.163593000 17.402615000 12.287354000
140 1 1 2.100000 11.209874000 18.670586000 17.779579000
141 1 1 2.100000 14.817051000 21.911764000  7.757269000
142 1 1 2.100000 20.770769000 23.179735000  2.265043000
143 1 1 2.100000 19.776592000 21.911764000 12.287354000
144 1 1 2.100000 13.822874000 23.179735000 17.779579000
145 1 1 2.100000 12.204051000 26.420914000  7.757269000
146 1 1 2.100000 18.157770000  9.652287000  2.265043000
147 1 1 2.100000 17.163593000 26.420914000 12.287354000
148 1 1 2.100000 11.209874000  9.652287000 17.779579000
149 1 1 2.100000 14.817051000 30.930063000  7.757269000
150 1 1 2.100000 20.770769000 14.161437000  2.265043000
151 1 1 2.100000 19.776592000 30.930063000 12.287354000
152 1 1 2.100000 13.822874000 14.161437000 17.779579000
153 1 1 2.100000 12.204051000 35.439213000  7.757269000
154 1 1 2.100000 18.157770000  0.633987000  2.265043000
155 1 1 2.100000 17.163593000 35.439213000 12.287354000
156 1 1 2.100000 11.209874000  0.633987000 17.779579000
157 1 1 2.100000 14.817051000  3.875163000  7.757269000
158 1 1 2.100000 20.770769000  5.143137000  2.265043000
159 1 1 2.100000 19.776592000  3.875163000 12.287354000
160 1 1 2.100000 13.822874000  5.143137000 17.779579000
161 1 1 2.100000 27.882051000  8.384314000  7.757269000
162 1 1 2.100000  2.479769000 27.688887000  2.265043000
163 1 1 2.100000  1.485592000  8.384314000 12.287354000
164 1 1 2.100000 26.887875000 27.688887000 17.779579000
165 1 1 2.100000 30.495050000 12.893464000  7.757269000
166 1 1 2.100000  5.092768000 32.198036000  2.265043000
167 1 1 2.100000  4.098591000 12.893464000 12.287354000
168 1 1 2.100000 29.500874000 32.198036000 17.779579000
169 1 1 2.100000 27.882051000 17.402615000  7.757269000
170 1 1 2.100000  2.479769000 18.670586000  2.265043000
171 1 1 2.100000  1.485592000 17.402615000 12.287354000
172 1 1 2.100000 26.887875000 18.670586000 17.779579000
173 1 1 2.100000 30.495050000 21.911764000  7.757269000
174 1 1 2.100000  5.092768000 23.179735000  2.265043000
175 1 1 2.100000  4.098591000 21.911764000 12.287354000
176 1 1 2.100000 29.500874000 23.179735000 17.779579000
177 1 1 2.100000 27.882051000 26.420914000  7.757269000
178 1 1 2.100000  2.479769000  9.652287000  2.265043000
179 1 1 2.100000  1.485592000 26.420914000 12.287354000
180 1 1 2.100000 26.887875000  9.652287000 17.779579000
181 1 1 2.100000 30.495050000 30.930063000  7.757269000
182 1 1 2.100000  5.092768000 14.161437000  2.265043000
183 1 1 2.100000  4.098591000 30.930063000 12.287354000
184 1 1 2.100000 29.500874000 14.161437000 17.779579000
185 1 1 2.100000 27.882051000 35.439213000  7.757269000
186 1 1 2.100000  2.479769000  0.633987000  2.265043000
187 1 1 2.100000  1.485592000 35.439213000 12.287354000
188 1 1 2.100000 26.887875000  0.633987000 17.779579000
189 1 1 2.100000 30.495050000  3.875163000  7.757269000
190 1 1 2.100000  5.092768000  5.143137000  2.265043000
191 1 1 2.100000  4.098591000  3.875163000 12.287354000
192 1 1 2.100000 29.500874000  5.143137000 17.779579000
193 1 2 2.100000  1.547664000  2.376322000  7.747247000
194 1 2 2.100000 28.814156000 33.696877000  2.275065000
195 1 2 2.100000 27.819979000  2.376322000 12.297376000
196 1 2 2.100000  0.553487000 33.696877000 17.769558000
197 1 2 2.100000  4.160664000  6.885472000  7.747247000
198 1 2 2.100000  0.071159000  2.132828000  2.275065000
199 1 2 2.100000 -0.923018000  6.885472000 12.297376000
200 1 2 2.100000  3.166487000  2.132828000 17.769558000
201 1 4 1.575000  1.547664000 11.394624000  7.747247000
202 1 4 1.575000 28.814156000 24.678576000  2.275065000
203 1 4 1.575000 27.819979000 11.394624000 12.297376000
204 1 2 2.100000  0.553487000 24.678576000 17.769558000
205 1 2 2.100000  4.160664000 15.903774000  7.747247000
206 1 4 1.575000  0.071159000 29.187727000  2.275065000
207 1 4 1.575000 -0.923018000 15.903774000 12.297376000
208 1 2 2.100000  3.166487000 29.187727000 17.769558000
209 1 2 2.100000 22.451660000  2.376322000  7.747247000
210 1 2 2.100000  7.910159000 33.696877000  2.275065000
211 1 2 2.100000  6.915982000  2.376322000 12.297376000
212 1 2 2.100000 21.457483000 33.696877000 17.769558000
213 1 2 2.100000 25.064661000  6.885472000  7.747247000
214 1 2 2.100000 10.523158000  2.132828000  2.275065000
215 1 4 1.575000  9.528981000  6.885472000 12.297376000
216 1 4 1.575000 24.070484000  2.132828000 17.769558000
217 1 4 1.575000 22.451660000 11.394624000  7.747247000
218 1 2 2.100000  7.910159000 24.678576000  2.275065000
219 1 2 2.100000  6.915982000 11.394624000 12.297376000
220 1 4 1.575000 21.457483000 24.678576000 17.769558000
221 1 4 1.575000 25.064661000 15.903774000  7.747247000
222 1 2 2.100000 10.523158000 29.187727000  2.275065000
223 1 2 2.100000  9.528981000 15.903774000 12.297376000
224 1 2 2.100000 24.070484000 29.187727000 17.769558000
225 1 2 2.100000  1.547664000 20.412922000  7.747247000
226 1 2 2.100000 28.814156000 15.660278000  2.275065000
227 1 2 2.100000 27.819979000 20.412922000 12.297376000
228 1 2 2.100000  0.553487000 15.660278000 17.769558000
229 1 4 1.575000  4.160664000 24.922071000  7.747247000
230 1 2 2.100000  0.071159000 20.169428000  2.275065000
231 1 2 2.100000 -0.923018000 24.922071000 12.297376000
232 1 2 2.100000  3.166487000 20.169428000 17.769558000
233 1 4 1.575000  1.547664000 29.431225000  7.747247000
234 1 2 2.100000 28.814156000  6.641976000  2.275065000
235 1 2 2.100000 27.819979000 29.431225000 12.297376000
236 1 2 2.100000  0.553487000  6.641976000 17.769558000
237 1 2 2.100000  4.160664000 33.940372000  7.747247000
238 1 4 1.575000  0.071159000 11.151126000  2.275065000
239 1 2 2.100000 -0.923018000 33.940372000 12.297376000
240 1 2 2.100000  3.166487000 11.151126000 17.769558000
241 1 2 2.100000 22.451660000 20.412922000  7.747247000
242 1 2 2.100000  7.910159000 15.660278000  2.275065000
243 1 4 1.575000  6.915982000 20.412922000 12.297376000
244 1 4 1.575000 21.457483000 15.660278000 17.769558000
245 1 2 2.100000 25.064661000 24.922071000  7.747247000
246 1 2 2.100000 10.523158000 20.169428000  2.275065000
247 1 4 1.575000  9.528981000 24.922071000 12.297376000
248 1 2 2.100000 24.070484000 20.169428000 17.769558000
249 1 4 1.575000 22.451660000 29.431225000  7.747247000
250 1 4 1.575000  7.910159000  6.641976000  2.275065000
251 1 2 2.100000  6.915982000 29.431225000 12.297376000
252 1 2 2.100000 21.457483000  6.641976000 17.769558000
253 1 2 2.100000 25.064661000 33.940372000  7.747247000
254 1 2 2.100000 10.523158000 11.151126000  2.275065000
255 1 2 2.100000  9.528981000 33.940372000 12.297376000
256 1 2 2.100000 24.070484000 11.151126000 17.769558000
257 1 2 2.100000 17.225662000  2.376322000  7.747247000
258 1 2 2.100000 13.136157000 33.696877000  2.275065000
259 1 4 1.575000 12.141980000  2.376322000 12.297376000
260 1 2 2.100000 16.231485000 33.696877000 17.769558000
261 1 4 1.575000 19.838661000  6.885472000  7.747247000
262 1 4 1.575000 15.749157000  2.132828000  2.275065000
263 1 4 1.575000 14.754980000  6.885472000 12.297376000
264 1 2 2.100000 18.844484000  2.132828000 17.769558000
265 1 2 2.100000 17.225662000 11.394624000  7.747247000
266 1 2 2.100000 13.136157000 24.678576000  2.275065000
267 1 4 1.575000 12.141980000 11.394624000 12.297376000
268 1 2 2.100000 16.231485000 24.678576000 17.769558000
269 1 2 2.100000 19.838661000 15.903774000  7.747247000
270 1 2 2.100000 15.749157000 29.187727000  2.275065000
271 1 2 2.100000 14.754980000 15.903774000 12.297376000
272 1 2 2.100000 18.844484000 29.187727000 17.769558000
273 1 4 1.575000  6.773667000  2.376322000  7.747247000
274 1 4 1.575000 23.588154000 33.696877000  2.275065000
275 1 4 1.575000 22.593977000  2.376322000 12.297376000
276 1 2 2.100000  5.779490000 33.696877000 17.769558000
277 1 2 2.100000  9.386666000  6.885472000  7.747247000
278 1 2 2.100000 26.201153000  2.132828000  2.275065000
279 1 2 2.100000 25.206976000  6.885472000 12.297376000
280 1 4 1.575000  8.392489000  2.132828000 17.769558000
281 1 4 1.575000  6.773667000 11.394624000  7.747247000
282 1 2 2.100000 23.588154000 24.678576000  2.275065000
283 1 2 2.100000 22.593977000 11.394624000 12.297376000
284 1 2 2.100000  5.779490000 24.678576000 17.769558000
285 1 4 1.575000  9.386666000 15.903774000  7.747247000
286 1 2 2.100000 26.201153000 29.187727000  2.275065000
287 1 2 2.100000 25.206976000 15.903774000 12.297376000
288 1 2 2.100000  8.392489000 29.187727000 17.769558000
289 1 4 1.575000 17.225662000 20.412922000  7.747247000
290 1 2 2.100000 13.136157000 15.660278000  2.275065000
291 1 2 2.100000 12.141980000 20.412922000 12.297376000
292 1 4 1.575000 16.231485000 15.660278000 17.769558000
293 1 2 2.100000 19.838661000 24.922071000  7.747247000
294 1 2 2.100000 15.749157000 20.169428000  2.275065000
295 1 2 2.100000 14.754980000 24.922071000 12.297376000
296 1 2 2.100000 18.844484000 20.169428000 17.769558000
297 1 4 1.575000 17.225662000 29.431225000  7.747247000
298 1 2 2.100000 13.136157000  6.641976000  2.275065000
299 1 2 2.100000 12.141980000 29.431225000 12.297376000
300 1 4 1.575000 16.231485000  6.641976000 17.769558000
301 1 2 2.100000 19.838661000 33.940372000  7.747247000
302 1 2 2.100000 15.749157000 11.151126000  2.275065000
303 1 2 2.100000 14.754980000 33.940372000 12.297376000
304 1 2 2.100000 18.844484000 11.151126000 17.769558000
305 1 2 2.100000  6.773667000 20.412922000  7.747247000
306 1 2 2.100000 23.588154000 15.660278000  2.275065000
307 1 2 2.100000 22.593977000 20.412922000 12.297376000
308 1 2 2.100000  5.779490000 15.660278000 17.769558000
309 1 2 2.100000  9.386666000 24.922071000  7.747247000
310 1 4 1.575000 26.201153000 20.169428000  2.275065000
311 1 4 1.575000 25.206976000 24.922071000 12.297376000
312 1 2 2.100000  8.392489000 20.169428000 17.769558000
313 1 4 1.575000  6.773667000 29.431225000  7.747247000
314 1 4 1.575000 23.588154000  6.641976000  2.275065000
315 1 2 2.100000 22.593977000 29.431225000 12.297376000
316 1 2 2.100000  5.779490000  6.641976000 17.769558000
317 1 2 2.100000  9.386666000 33.940372000  7.747247000
318 1 4 1.575000 26.201153000 11.151126000  2.275065000
319 1 2 2.100000 25.206976000 33.940372000 12.297376000
320 1 4 1.575000  8.392489000 11.151126000 17.769558000
321 1 2 2.100000 11.999663000  2.376322000  7.747247000
322 1 4 1.575000 18.362158000 33.696877000  2.275065000
323 1 2 2.100000 17.367981000  2.376322000 12.297376000
324 1 4 1.575000 11.005486000 33.696877000 17.769558000
325 1 2 2.100000 14.612663000  6.885472000  7.747247000
326 1 2 2.100000 20.975157000  2.132828000  2.275065000
327 1 2 2.100000 19.980980000  6.885472000 12.297376000
328 1 2 2.100000 13.618486000  2.132828000 17.769558000
329 1 2 2.100000 11.999663000 11.394624000  7.747247000
330 1 2 2.100000 18.362158000 24.678576000  2.275065000
331 1 2 2.100000 17.367981000 11.394624000 12.297376000
332 1 4 1.575000 11.005486000 24.678576000 17.769558000
333 1 4 1.575000 14.612663000 15.903774000  7.747247000
334 1 4 1.575000 20.975157000 29.187727000  2.275065000
335 1 4 1.575000 19.980980000 15.903774000 12.297376000
336 1 4 1.575000 13.618486000 29.187727000 17.769558000
337 1 2 2.100000 11.999663000 20.412922000  7.747247000
338 1 2 2.100000 18.362158000 15.660278000  2.275065000
339 1 2 2.100000 17.367981000 20.412922000 12.297376000
340 1 4 1.575000 11.005486000 15.660278000 17.769558000
341 1 2 2.100000 14.612663000 24.922071000  7.747247000
342 1 4 1.575000 20.975157000 20.169428000  2.275065000
343 1 4 1.575000 19.980980000 24.922071000 12.297376000
344 1 2 2.100000 13.618486000 20.169428000 17.769558000
345 1 2 2.100000 11.999663000 29.431225000  7.747247000
346 1 2 2.100000 18.362158000  6.641976000  2.275065000
347 1 2 2.100000 17.367981000 29.431225000 12.297376000
348 1 4 1.575000 11.005486000  6.641976000 17.769558000
349 1 4 1.575000 14.612663000 33.940372000  7.747247000
350 1 2 2.100000 20.975157000 11.151126000  2.275065000
351 1 2 2.100000 19.980980000 33.940372000 12.297376000
352 1 4 1.575000 13.618486000 11.151126000 17.769558000
353 1 4 1.575000 27.677662000  2.376322000  7.747247000
354 1 2 2.100000  2.684159000 33.696877000  2.275065000
355 1 2 2.100000  1.689982000  2.376322000 12.297376000
356 1 4 1.575000 26.683485000 33.696877000 17.769558000
357 1 2 2.100000 30.290661000  6.885472000  7.747247000
358 1 2 2.100000  5.297158000  2.132828000  2.275065000
359 1 4 1.575000  4.302981000  6.885472000 12.297376000
360 1 4 1.575000 29.296484000  2.132828000 17.769558000
361 1 2 2.100000 27.677662000 11.394624000  7.747247000
362 1 2 2.100000  2.684159000 24.678576000  2.275065000
363 1 2 2.100000  1.689982000 11.394624000 12.297376000
364 1 2 2.100000 26.683485000 24.678576000 17.769558000
365 1 2 2.100000 30.290661000 15.903774000  7.747247000
366 1 4 1.575000  5.297158000 29.187727000  2.275065000
367 1 4 1.575000  4.302981000 15.903774000 12.297376000
368 1 2 2.100000 29.296484000 29.187727000 17.769558000
369 1 4 1.575000 27.677662000 20.412922000  7.747247000
370 1 4 1.575000  2.684159000 15.660278000  2.275065000
371 1 4 1.575000  1.689982000 20.412922000 12.297376000
372 1 2 2.100000 26.683485000 15.660278000 17.769558000
373 1 2 2.100000 30.290661000 24.922071000  7.747247000
374 1 2 2.100000  5.297158000 20.169428000  2.275065000
375 1 2 2.100000  4.302981000 24.922071000 12.297376000
376 1 4 1.575000 29.296484000 20.169428000 17.769558000
377 1 4 1.575000 27.677662000 29.431225000  7.747247000
378 1 4 1.575000  2.684159000  6.641976000  2.275065000
379 1 2 2.100000  1.689982000 29.431225000 12.297376000
380 1 4 1.575000 26.683485000  6.641976000 17.769558000
381 1 2 2.100000 30.290661000 33.940372000  7.747247000
382 1 4 1.575000  5.297158000 11.151126000  2.275065000
383 1 4 1.575000  4.302981000 33.940372000 12.297376000
384 1 2 2.100000 29.296484000 11.151126000 17.769558000
385 1 3 1.575000  0.840834000  0.746715000  5.147459000
386 1 3 1.575000 29.520987000 35.326485000  4.874852000
387 1 3 1.575000 28.526810000  0.746715000 14.897163000
388 1 3 1.575000 -0.153343000 35.326485000 15.169770000
389 1 3 1.575000  3.453834000  5.255866000  5.147459000
390 1 3 1.575000  0.777989000  3.762435000  4.874852000
391 1 3 1.575000 -0.216188000  5.255866000 14.897163000
392 1 3 1.575000  2.459657000  3.762435000 15.169770000
393 1 3 1.575000  0.840834000  9.765014000  5.147459000
394 1 3 1.575000 29.520987000 26.308186000  4.874852000
395 1 3 1.575000 28.526810000  9.765014000 14.897163000
396 1 3 1.575000 -0.153343000 26.308186000 15.169770000
397 1 3 1.575000  3.453834000 14.274163000  5.147459000
398 1 3 1.575000  0.777989000 30.817335000  4.874852000
399 1 3 1.575000 -0.216188000 14.274163000 14.897163000
400 1 3 1.575000  2.459657000 30.817335000 15.169770000
401 1 3 1.575000 21.744829000  0.746715000  5.147459000
402 1 3 1.575000  8.616991000 35.326485000  4.874852000
403 1 3 1.575000  7.622814000  0.746715000 14.897163000
404 1 3 1.575000 20.750652000 35.326485000 15.169770000
405 1 3 1.575000 24.357828000  5.255866000  5.147459000
406 1 3 1.575000 11.229990000  3.762435000  4.874852000
407 1 3 1.575000 10.235813000  5.255866000 14.897163000
408 1 3 1.575000 23.363651000  3.762435000 15.169770000
409 1 3 1.575000 21.744829000  9.765014000  5.147459000
410 1 3 1.575000  8.616991000 26.308186000  4.874852000
411 1 3 1.575000  7.622814000  9.765014000 14.897163000
412 1 3 1.575000 20.750652000 26.308186000 15.169770000
413 1 3 1.575000 24.357828000 14.274163000  5.147459000
414 1 3 1.575000 11.229990000 30.817335000  4.874852000
415 1 3 1.575000 10.235813000 14.274163000 14.897163000
416 1 3 1.575000 23.363651000 30.817335000 15.169770000
417 1 3 1.575000  0.840834000 18.783314000  5.147459000
418 1 3 1.575000 29.520987000 17.289886000  4.874852000
419 1 3 1.575000 28.526810000 18.783314000 14.897163000
420 1 3 1.575000 -0.153343000 17.289886000 15.169770000
421 1 3 1.575000  3.453834000 23.292465000  5.147459000
422 1 3 1.575000  0.777989000 21.799036000  4.874852000
423 1 3 1.575000 -0.216188000 23.292465000 14.897163000
424 1 3 1.575000  2.459657000 21.799036000 15.169770000
425 1 3 1.575000  0.840834000 27.801619000  5.147459000
426 1 3 1.575000 29.520987000  8.271582000  4.874852000
427 1 3 1.575000 28.526810000 27.801619000 14.897163000
428 1 3 1.575000 -0.153343000  8.271582000 15.169770000
429 1 3 1.575000  3.453834000 32.310768000  5.147459000
430 1 3 1.575000  0.777989000 12.780731000  4.874852000
431 1 3 1.575000 -0.216188000 32.310768000 14.897163000
432 1 3 1.575000  2.459657000 12.780731000 15.169770000
433 1 3 1.575000 21.744829000 18.783314000  5.147459000
434 1 3 1.575000  8.616991000 17.289886000  4.874852000
435 1 3 1.575000  7.622814000 18.783314000 14.897163000
436 1 3 1.575000 20.750652000 17.289886000 15.169770000
437 1 3 1.575000 24.357828000 23.292465000  5.147459000
438 1 3 1.575000 11.229990000 21.799036000  4.874852000
439 1 3 1.575000 10.235813000 23.292465000 14.897163000
440 1 3 1.575000 23.363651000 21.799036000 15.169770000
441 1 3 1.575000 21.744829000 27.801619000  5.147459000
442 1 3 1.575000  8.616991000  8.271582000  4.874852000
443 1 3 1.575000  7.622814000 27.801619000 14.897163000
444 1 3 1.575000 20.750652000  8.271582000 15.169770000
445 1 3 1.575000 24.357828000 32.310768000  5.147459000
446 1 3 1.575000 11.229990000 12.780731000  4.874852000
447 1 3 1.575000 10.235813000 32.310768000 14.897163000
448 1 3 1.575000 23.363651000 12.780731000 15.169770000
449 1 3 1.575000 16.518833000  0.746715000  5.147459000
450 1 3 1.575000 13.842987000 35.326485000  4.874852000
451 1 3 1.575000 12.848810000  0.746715000 14.897163000
452 1 3 1.575000 15.524656000 35.326485000 15.169770000
453 1 3 1.575000 19.131832000  5.255866000  5.147459000
454 1 3 1.575000 16.455988000  3.762435000  4.874852000
455 1 3 1.575000 15.461811000  5.255866000 14.897163000
456 1 3 1.575000 18.137655000  3.762435000 15.169770000
457 1 3 1.575000 16.518833000  9.765014000  5.147459000
458 1 3 1.575000 13.842987000 26.308186000  4.874852000
459 1 3 1.575000 12.848810000  9.765014000 14.897163000
460 1 3 1.575000 15.524656000 26.308186000 15.169770000
461 1 3 1.575000 19.131832000 14.274163000  5.147459000
462 1 3 1.575000 16.455988000 30.817335000  4.874852000
463 1 3 1.575000 15.461811000 14.274163000 14.897163000
464 1 3 1.575000 18.137655000 30.817335000 15.169770000
465 1 3 1.575000  6.066835000  0.746715000  5.147459000
466 1 3 1.575000 24.294987000 35.326485000  4.874852000
467 1 3 1.575000 23.300810000  0.746715000 14.897163000
468 1 3 1.575000  5.072658000 35.326485000 15.169770000
469 1 3 1.575000  8.679834000  5.255866000  5.147459000
470 1 3 1.575000 26.907986000  3.762435000  4.874852000
471 1 3 1.575000 25.913809000  5.255866000 14.897163000
472 1 3 1.575000  7.685658000  3.762435000 15.169770000
473 1 3 1.575000  6.066835000  9.765014000  5.147459000
474 1 3 1.575000 24.294987000 26.308186000  4.874852000
475 1 3 1.575000 23.300810000  9.765014000 14.897163000
476 1 3 1.575000  5.072658000 26.308186000 15.169770000
477 1 3 1.575000  8.679834000 14.274163000  5.147459000
478 1 3 1.575000 26.907986000 30.817335000  4.874852000
479 1 3 1.575000 25.913809000 14.274163000 14.897163000
480 1 3 1.575000  7.685658000 30.817335000 15.169770000
481 1 3 1.575000 16.518833000 18.783314000  5.147459000
482 1 3 1.575000 13.842987000 17.289886000  4.874852000
483 1 3 1.575000 12.848810000 18.783314000 14.897163000
484 1 3 1.575000 15.524656000 17.289886000 15.169770000
485 1 3 1.575000 19.131832000 23.292465000  5.147459000
486 1 3 1.575000 16.455988000 21.799036000  4.874852000
487 1 3 1.575000 15.461811000 23.292465000 14.897163000
488 1 3 1.575000 18.137655000 21.799036000 15.169770000
489 1 3 1.575000 16.518833000 27.801619000  5.147459000
490 1 3 1.575000 13.842987000  8.271582000  4.874852000
491 1 3 1.575000 12.848810000 27.801619000 14.897163000
492 1 3 1.575000 15.524656000  8.271582000 15.169770000
493 1 3 1.575000 19.131832000 32.310768000  5.147459000
494 1 3 1.575000 16.455988000 12.780731000  4.874852000
495 1 3 1.575000 15.461811000 32.310768000 14.897163000
496 1 3 1.575000 18.137655000 12.780731000 15.169770000
497 1 3 1.575000  6.066835000 18.783314000  5.147459000
498 1 3 1.575000 24.294987000 17.289886000  4.874852000
499 1 3 1.575000 23.300810000 18.783314000 14.897163000
500 1 3 1.575000  5.072658000 17.289886000 15.169770000
501 1 3 1.575000  8.679834000 23.292465000  5.147459000
502 1 3 1.575000 26.907986000 21.799036000  4.874852000
503 1 3 1.575000 25.913809000 23.292465000 14.897163000
504 1 3 1.575000  7.685658000 21.799036000 15.169770000
505 1 3 1.575000  6.066835000 27.801619000  5.147459000
506 1 3 1.575000 24.294987000  8.271582000  4.874852000
507 1 3 1.575000 23.300810000 27.801619000 14.897163000
508 1 3 1.575000  5.072658000  8.271582000 15.169770000
509 1 3 1.575000  8.679834000 32.310768000  5.147459000
510 1 3 1.575000 26.907986000 12.780731000  4.874852000
511 1 3 1.575000 25.913809000 32.310768000 14.897163000
512 1 3 1.575000  7.685658000 12.780731000 15.169770000
513 1 3 1.575000 11.292833000  0.746715000  5.147459000
514 1 3 1.575000 19.068985000 35.326485000  4.874852000
515 1 3 1.575000 18.074808000  0.746715000 14.897163000
516 1 3 1.575000 10.298656000 35.326485000 15.169770000
517 1 3 1.575000 13.905833000  5.255866000  5.147459000
518 1 3 1.575000 21.681986000  3.762435000  4.874852000
519 1 3 1.575000 20.687809000  5.255866000 14.897163000
520 1 3 1.575000 12.911656000  3.762435000 15.169770000
521 1 3 1.575000 11.292833000  9.765014000  5.147459000
522 1 3 1.575000 19.068985000 26.308186000  4.874852000
523 1 3 1.575000 18.074808000  9.765014000 14.897163000
524 1 3 1.575000 10.298656000 26.308186000 15.169770000
525 1 3 1.575000 13.905833000 14.274163000  5.147459000
526 1 3 1.575000 21.681986000 30.817335000  4.874852000
527 1 3 1.575000 20.687809000 14.274163000 14.897163000
528 1 3 1.575000 12.911656000 30.817335000 15.169770000
529 1 3 1.575000 11.292833000 18.783314000  5.147459000
530 1 3 1.575000 19.068985000 17.289886000  4.874852000